  COHP#       atomMU       atomNU     distance     translation      ICOHP (at) eF   for spin  1
      1          Cs1          Ag9      5.30092       0   0   1           -0.25178 
      1       Cs1_5s       Ag9_5s      5.30092       0   0   1           -0.00254 
      1       Cs1_5s     Ag9_5p_y      5.30092       0   0   1           -0.06267 
      1       Cs1_5s     Ag9_5p_z      5.30092       0   0   1           -0.06301 
      1       Cs1_5s     Ag9_5p_x      5.30092       0   0   1           -0.06278 
      1       Cs1_5s    Ag9_4d_xy      5.30092       0   0   1           -0.00000 
      1       Cs1_5s    Ag9_4d_yz      5.30092       0   0   1            0.00000 
      1       Cs1_5s   Ag9_4d_z^2      5.30092       0   0   1           -0.00000 
      1       Cs1_5s    Ag9_4d_xz      5.30092       0   0   1           -0.00000 
      1       Cs1_5s Ag9_4d_x^2-y^2      5.30092       0   0   1           -0.00000 
      1       Cs1_6s       Ag9_5s      5.30092       0   0   1           -0.01722 
      1       Cs1_6s     Ag9_5p_y      5.30092       0   0   1           -0.00658 
      1       Cs1_6s     Ag9_5p_z      5.30092       0   0   1           -0.00589 
      1       Cs1_6s     Ag9_5p_x      5.30092       0   0   1           -0.00631 
      1       Cs1_6s    Ag9_4d_xy      5.30092       0   0   1            0.00004 
      1       Cs1_6s    Ag9_4d_yz      5.30092       0   0   1            0.00004 
      1       Cs1_6s   Ag9_4d_z^2      5.30092       0   0   1           -0.00000 
      1       Cs1_6s    Ag9_4d_xz      5.30092       0   0   1            0.00004 
      1       Cs1_6s Ag9_4d_x^2-y^2      5.30092       0   0   1           -0.00000 
      1     Cs1_5p_y       Ag9_5s      5.30092       0   0   1           -0.00026 
      1     Cs1_5p_y     Ag9_5p_y      5.30092       0   0   1           -0.00044 
      1     Cs1_5p_y     Ag9_5p_z      5.30092       0   0   1           -0.00378 
      1     Cs1_5p_y     Ag9_5p_x      5.30092       0   0   1           -0.00388 
      1     Cs1_5p_y    Ag9_4d_xy      5.30092       0   0   1            0.00000 
      1     Cs1_5p_y    Ag9_4d_yz      5.30092       0   0   1            0.00000 
      1     Cs1_5p_y   Ag9_4d_z^2      5.30092       0   0   1           -0.00000 
      1     Cs1_5p_y    Ag9_4d_xz      5.30092       0   0   1           -0.00000 
      1     Cs1_5p_y Ag9_4d_x^2-y^2      5.30092       0   0   1           -0.00000 
      1     Cs1_5p_z       Ag9_5s      5.30092       0   0   1           -0.00027 
      1     Cs1_5p_z     Ag9_5p_y      5.30092       0   0   1           -0.00375 
      1     Cs1_5p_z     Ag9_5p_z      5.30092       0   0   1           -0.00044 
      1     Cs1_5p_z     Ag9_5p_x      5.30092       0   0   1           -0.00387 
      1     Cs1_5p_z    Ag9_4d_xy      5.30092       0   0   1           -0.00000 
      1     Cs1_5p_z    Ag9_4d_yz      5.30092       0   0   1            0.00000 
      1     Cs1_5p_z   Ag9_4d_z^2      5.30092       0   0   1           -0.00000 
      1     Cs1_5p_z    Ag9_4d_xz      5.30092       0   0   1            0.00000 
      1     Cs1_5p_z Ag9_4d_x^2-y^2      5.30092       0   0   1           -0.00000 
      1     Cs1_5p_x       Ag9_5s      5.30092       0   0   1           -0.00026 
      1     Cs1_5p_x     Ag9_5p_y      5.30092       0   0   1           -0.00378 
      1     Cs1_5p_x     Ag9_5p_z      5.30092       0   0   1           -0.00373 
      1     Cs1_5p_x     Ag9_5p_x      5.30092       0   0   1           -0.00044 
      1     Cs1_5p_x    Ag9_4d_xy      5.30092       0   0   1            0.00000 
      1     Cs1_5p_x    Ag9_4d_yz      5.30092       0   0   1           -0.00000 
      1     Cs1_5p_x   Ag9_4d_z^2      5.30092       0   0   1           -0.00000 
      1     Cs1_5p_x    Ag9_4d_xz      5.30092       0   0   1            0.00000 
      1     Cs1_5p_x Ag9_4d_x^2-y^2      5.30092       0   0   1           -0.00000 
      2          Cs1         Ag10      5.30092       0   0   0           -0.25204 
      2       Cs1_5s      Ag10_5s      5.30092       0   0   0           -0.00271 
      2       Cs1_5s    Ag10_5p_y      5.30092       0   0   0           -0.06286 
      2       Cs1_5s    Ag10_5p_z      5.30092       0   0   0           -0.06338 
      2       Cs1_5s    Ag10_5p_x      5.30092       0   0   0           -0.06274 
      2       Cs1_5s   Ag10_4d_xy      5.30092       0   0   0           -0.00000 
      2       Cs1_5s   Ag10_4d_yz      5.30092       0   0   0           -0.00000 
      2       Cs1_5s  Ag10_4d_z^2      5.30092       0   0   0           -0.00000 
      2       Cs1_5s   Ag10_4d_xz      5.30092       0   0   0           -0.00000 
      2       Cs1_5s Ag10_4d_x^2-y^2      5.30092       0   0   0           -0.00000 
      2       Cs1_6s      Ag10_5s      5.30092       0   0   0           -0.01751 
      2       Cs1_6s    Ag10_5p_y      5.30092       0   0   0           -0.00617 
      2       Cs1_6s    Ag10_5p_z      5.30092       0   0   0           -0.00559 
      2       Cs1_6s    Ag10_5p_x      5.30092       0   0   0           -0.00591 
      2       Cs1_6s   Ag10_4d_xy      5.30092       0   0   0            0.00004 
      2       Cs1_6s   Ag10_4d_yz      5.30092       0   0   0            0.00004 
      2       Cs1_6s  Ag10_4d_z^2      5.30092       0   0   0           -0.00000 
      2       Cs1_6s   Ag10_4d_xz      5.30092       0   0   0            0.00003 
      2       Cs1_6s Ag10_4d_x^2-y^2      5.30092       0   0   0           -0.00000 
      2     Cs1_5p_y      Ag10_5s      5.30092       0   0   0           -0.00025 
      2     Cs1_5p_y    Ag10_5p_y      5.30092       0   0   0           -0.00048 
      2     Cs1_5p_y    Ag10_5p_z      5.30092       0   0   0           -0.00379 
      2     Cs1_5p_y    Ag10_5p_x      5.30092       0   0   0           -0.00391 
      2     Cs1_5p_y   Ag10_4d_xy      5.30092       0   0   0            0.00000 
      2     Cs1_5p_y   Ag10_4d_yz      5.30092       0   0   0            0.00000 
      2     Cs1_5p_y  Ag10_4d_z^2      5.30092       0   0   0           -0.00000 
      2     Cs1_5p_y   Ag10_4d_xz      5.30092       0   0   0           -0.00000 
      2     Cs1_5p_y Ag10_4d_x^2-y^2      5.30092       0   0   0           -0.00000 
      2     Cs1_5p_z      Ag10_5s      5.30092       0   0   0           -0.00026 
      2     Cs1_5p_z    Ag10_5p_y      5.30092       0   0   0           -0.00381 
      2     Cs1_5p_z    Ag10_5p_z      5.30092       0   0   0           -0.00044 
      2     Cs1_5p_z    Ag10_5p_x      5.30092       0   0   0           -0.00392 
      2     Cs1_5p_z   Ag10_4d_xy      5.30092       0   0   0           -0.00000 
      2     Cs1_5p_z   Ag10_4d_yz      5.30092       0   0   0            0.00000 
      2     Cs1_5p_z  Ag10_4d_z^2      5.30092       0   0   0           -0.00000 
      2     Cs1_5p_z   Ag10_4d_xz      5.30092       0   0   0            0.00000 
      2     Cs1_5p_z Ag10_4d_x^2-y^2      5.30092       0   0   0           -0.00000 
      2     Cs1_5p_x      Ag10_5s      5.30092       0   0   0           -0.00027 
      2     Cs1_5p_x    Ag10_5p_y      5.30092       0   0   0           -0.00376 
      2     Cs1_5p_x    Ag10_5p_z      5.30092       0   0   0           -0.00393 
      2     Cs1_5p_x    Ag10_5p_x      5.30092       0   0   0           -0.00045 
      2     Cs1_5p_x   Ag10_4d_xy      5.30092       0   0   0            0.00000 
      2     Cs1_5p_x   Ag10_4d_yz      5.30092       0   0   0           -0.00000 
      2     Cs1_5p_x  Ag10_4d_z^2      5.30092       0   0   0           -0.00000 
      2     Cs1_5p_x   Ag10_4d_xz      5.30092       0   0   0            0.00000 
      2     Cs1_5p_x Ag10_4d_x^2-y^2      5.30092       0   0   0           -0.00000 
      3          Cs1         Ag11      5.30092       0   0   0           -0.25156 
      3       Cs1_5s      Ag11_5s      5.30092       0   0   0           -0.00253 
      3       Cs1_5s    Ag11_5p_y      5.30092       0   0   0           -0.06215 
      3       Cs1_5s    Ag11_5p_z      5.30092       0   0   0           -0.06317 
      3       Cs1_5s    Ag11_5p_x      5.30092       0   0   0           -0.06319 
      3       Cs1_5s   Ag11_4d_xy      5.30092       0   0   0            0.00000 
      3       Cs1_5s   Ag11_4d_yz      5.30092       0   0   0           -0.00000 
      3       Cs1_5s  Ag11_4d_z^2      5.30092       0   0   0            0.00000 
      3       Cs1_5s   Ag11_4d_xz      5.30092       0   0   0           -0.00000 
      3       Cs1_5s Ag11_4d_x^2-y^2      5.30092       0   0   0           -0.00000 
      3       Cs1_6s      Ag11_5s      5.30092       0   0   0           -0.01746 
      3       Cs1_6s    Ag11_5p_y      5.30092       0   0   0           -0.00617 
      3       Cs1_6s    Ag11_5p_z      5.30092       0   0   0           -0.00605 
      3       Cs1_6s    Ag11_5p_x      5.30092       0   0   0           -0.00608 
      3       Cs1_6s   Ag11_4d_xy      5.30092       0   0   0            0.00004 
      3       Cs1_6s   Ag11_4d_yz      5.30092       0   0   0            0.00004 
      3       Cs1_6s  Ag11_4d_z^2      5.30092       0   0   0            0.00000 
      3       Cs1_6s   Ag11_4d_xz      5.30092       0   0   0            0.00004 
      3       Cs1_6s Ag11_4d_x^2-y^2      5.30092       0   0   0           -0.00000 
      3     Cs1_5p_y      Ag11_5s      5.30092       0   0   0           -0.00027 
      3     Cs1_5p_y    Ag11_5p_y      5.30092       0   0   0           -0.00044 
      3     Cs1_5p_y    Ag11_5p_z      5.30092       0   0   0           -0.00387 
      3     Cs1_5p_y    Ag11_5p_x      5.30092       0   0   0           -0.00368 
      3     Cs1_5p_y   Ag11_4d_xy      5.30092       0   0   0            0.00000 
      3     Cs1_5p_y   Ag11_4d_yz      5.30092       0   0   0            0.00000 
      3     Cs1_5p_y  Ag11_4d_z^2      5.30092       0   0   0           -0.00000 
      3     Cs1_5p_y   Ag11_4d_xz      5.30092       0   0   0           -0.00000 
      3     Cs1_5p_y Ag11_4d_x^2-y^2      5.30092       0   0   0           -0.00000 
      3     Cs1_5p_z      Ag11_5s      5.30092       0   0   0           -0.00025 
      3     Cs1_5p_z    Ag11_5p_y      5.30092       0   0   0           -0.00376 
      3     Cs1_5p_z    Ag11_5p_z      5.30092       0   0   0           -0.00040 
      3     Cs1_5p_z    Ag11_5p_x      5.30092       0   0   0           -0.00382 
      3     Cs1_5p_z   Ag11_4d_xy      5.30092       0   0   0           -0.00000 
      3     Cs1_5p_z   Ag11_4d_yz      5.30092       0   0   0            0.00000 
      3     Cs1_5p_z  Ag11_4d_z^2      5.30092       0   0   0           -0.00000 
      3     Cs1_5p_z   Ag11_4d_xz      5.30092       0   0   0           -0.00000 
      3     Cs1_5p_z Ag11_4d_x^2-y^2      5.30092       0   0   0           -0.00000 
      3     Cs1_5p_x      Ag11_5s      5.30092       0   0   0           -0.00026 
      3     Cs1_5p_x    Ag11_5p_y      5.30092       0   0   0           -0.00377 
      3     Cs1_5p_x    Ag11_5p_z      5.30092       0   0   0           -0.00395 
      3     Cs1_5p_x    Ag11_5p_x      5.30092       0   0   0           -0.00041 
      3     Cs1_5p_x   Ag11_4d_xy      5.30092       0   0   0            0.00000 
      3     Cs1_5p_x   Ag11_4d_yz      5.30092       0   0   0           -0.00000 
      3     Cs1_5p_x  Ag11_4d_z^2      5.30092       0   0   0           -0.00000 
      3     Cs1_5p_x   Ag11_4d_xz      5.30092       0   0   0            0.00000 
      3     Cs1_5p_x Ag11_4d_x^2-y^2      5.30092       0   0   0           -0.00000 
      4          Cs1         Ag12      5.30092       0   0   1           -0.25016 
      4       Cs1_5s      Ag12_5s      5.30092       0   0   1           -0.00257 
      4       Cs1_5s    Ag12_5p_y      5.30092       0   0   1           -0.06225 
      4       Cs1_5s    Ag12_5p_z      5.30092       0   0   1           -0.06278 
      4       Cs1_5s    Ag12_5p_x      5.30092       0   0   1           -0.06205 
      4       Cs1_5s   Ag12_4d_xy      5.30092       0   0   1           -0.00001 
      4       Cs1_5s   Ag12_4d_yz      5.30092       0   0   1           -0.00000 
      4       Cs1_5s  Ag12_4d_z^2      5.30092       0   0   1           -0.00000 
      4       Cs1_5s   Ag12_4d_xz      5.30092       0   0   1           -0.00000 
      4       Cs1_5s Ag12_4d_x^2-y^2      5.30092       0   0   1           -0.00000 
      4       Cs1_6s      Ag12_5s      5.30092       0   0   1           -0.01754 
      4       Cs1_6s    Ag12_5p_y      5.30092       0   0   1           -0.00618 
      4       Cs1_6s    Ag12_5p_z      5.30092       0   0   1           -0.00592 
      4       Cs1_6s    Ag12_5p_x      5.30092       0   0   1           -0.00601 
      4       Cs1_6s   Ag12_4d_xy      5.30092       0   0   1            0.00003 
      4       Cs1_6s   Ag12_4d_yz      5.30092       0   0   1            0.00004 
      4       Cs1_6s  Ag12_4d_z^2      5.30092       0   0   1           -0.00000 
      4       Cs1_6s   Ag12_4d_xz      5.30092       0   0   1            0.00004 
      4       Cs1_6s Ag12_4d_x^2-y^2      5.30092       0   0   1           -0.00000 
      4     Cs1_5p_y      Ag12_5s      5.30092       0   0   1           -0.00027 
      4     Cs1_5p_y    Ag12_5p_y      5.30092       0   0   1           -0.00039 
      4     Cs1_5p_y    Ag12_5p_z      5.30092       0   0   1           -0.00380 
      4     Cs1_5p_y    Ag12_5p_x      5.30092       0   0   1           -0.00374 
      4     Cs1_5p_y   Ag12_4d_xy      5.30092       0   0   1            0.00000 
      4     Cs1_5p_y   Ag12_4d_yz      5.30092       0   0   1            0.00000 
      4     Cs1_5p_y  Ag12_4d_z^2      5.30092       0   0   1           -0.00000 
      4     Cs1_5p_y   Ag12_4d_xz      5.30092       0   0   1           -0.00000 
      4     Cs1_5p_y Ag12_4d_x^2-y^2      5.30092       0   0   1           -0.00000 
      4     Cs1_5p_z      Ag12_5s      5.30092       0   0   1           -0.00025 
      4     Cs1_5p_z    Ag12_5p_y      5.30092       0   0   1           -0.00381 
      4     Cs1_5p_z    Ag12_5p_z      5.30092       0   0   1           -0.00042 
      4     Cs1_5p_z    Ag12_5p_x      5.30092       0   0   1           -0.00382 
      4     Cs1_5p_z   Ag12_4d_xy      5.30092       0   0   1           -0.00000 
      4     Cs1_5p_z   Ag12_4d_yz      5.30092       0   0   1            0.00000 
      4     Cs1_5p_z  Ag12_4d_z^2      5.30092       0   0   1           -0.00000 
      4     Cs1_5p_z   Ag12_4d_xz      5.30092       0   0   1           -0.00000 
      4     Cs1_5p_z Ag12_4d_x^2-y^2      5.30092       0   0   1           -0.00000 
      4     Cs1_5p_x      Ag12_5s      5.30092       0   0   1           -0.00026 
      4     Cs1_5p_x    Ag12_5p_y      5.30092       0   0   1           -0.00385 
      4     Cs1_5p_x    Ag12_5p_z      5.30092       0   0   1           -0.00391 
      4     Cs1_5p_x    Ag12_5p_x      5.30092       0   0   1           -0.00044 
      4     Cs1_5p_x   Ag12_4d_xy      5.30092       0   0   1            0.00000 
      4     Cs1_5p_x   Ag12_4d_yz      5.30092       0   0   1           -0.00000 
      4     Cs1_5p_x  Ag12_4d_z^2      5.30092       0   0   1           -0.00000 
      4     Cs1_5p_x   Ag12_4d_xz      5.30092       0   0   1            0.00000 
      4     Cs1_5p_x Ag12_4d_x^2-y^2      5.30092       0   0   1           -0.00000 
      5          Cs1         Bi13      5.30092       0   0   1           -0.02521 
      5       Cs1_5s      Bi13_6s      5.30092       0   0   1           -0.00093 
      5       Cs1_5s    Bi13_6p_y      5.30092       0   0   1           -0.00003 
      5       Cs1_5s    Bi13_6p_z      5.30092       0   0   1           -0.00002 
      5       Cs1_5s    Bi13_6p_x      5.30092       0   0   1           -0.00002 
      5       Cs1_5s   Bi13_5d_xy      5.30092       0   0   1           -0.00000 
      5       Cs1_5s   Bi13_5d_yz      5.30092       0   0   1           -0.00000 
      5       Cs1_5s  Bi13_5d_z^2      5.30092       0   0   1           -0.00000 
      5       Cs1_5s   Bi13_5d_xz      5.30092       0   0   1           -0.00000 
      5       Cs1_5s Bi13_5d_x^2-y^2      5.30092       0   0   1            0.00000 
      5       Cs1_6s      Bi13_6s      5.30092       0   0   1           -0.01275 
      5       Cs1_6s    Bi13_6p_y      5.30092       0   0   1           -0.00386 
      5       Cs1_6s    Bi13_6p_z      5.30092       0   0   1           -0.00364 
      5       Cs1_6s    Bi13_6p_x      5.30092       0   0   1           -0.00371 
      5       Cs1_6s   Bi13_5d_xy      5.30092       0   0   1           -0.00004 
      5       Cs1_6s   Bi13_5d_yz      5.30092       0   0   1           -0.00003 
      5       Cs1_6s  Bi13_5d_z^2      5.30092       0   0   1           -0.00000 
      5       Cs1_6s   Bi13_5d_xz      5.30092       0   0   1           -0.00004 
      5       Cs1_6s Bi13_5d_x^2-y^2      5.30092       0   0   1            0.00000 
      5     Cs1_5p_y      Bi13_6s      5.30092       0   0   1           -0.00007 
      5     Cs1_5p_y    Bi13_6p_y      5.30092       0   0   1            0.00001 
      5     Cs1_5p_y    Bi13_6p_z      5.30092       0   0   1            0.00001 
      5     Cs1_5p_y    Bi13_6p_x      5.30092       0   0   1            0.00000 
      5     Cs1_5p_y   Bi13_5d_xy      5.30092       0   0   1           -0.00000 
      5     Cs1_5p_y   Bi13_5d_yz      5.30092       0   0   1           -0.00000 
      5     Cs1_5p_y  Bi13_5d_z^2      5.30092       0   0   1           -0.00000 
      5     Cs1_5p_y   Bi13_5d_xz      5.30092       0   0   1            0.00000 
      5     Cs1_5p_y Bi13_5d_x^2-y^2      5.30092       0   0   1           -0.00000 
      5     Cs1_5p_z      Bi13_6s      5.30092       0   0   1           -0.00007 
      5     Cs1_5p_z    Bi13_6p_y      5.30092       0   0   1            0.00001 
      5     Cs1_5p_z    Bi13_6p_z      5.30092       0   0   1            0.00001 
      5     Cs1_5p_z    Bi13_6p_x      5.30092       0   0   1            0.00001 
      5     Cs1_5p_z   Bi13_5d_xy      5.30092       0   0   1            0.00000 
      5     Cs1_5p_z   Bi13_5d_yz      5.30092       0   0   1           -0.00000 
      5     Cs1_5p_z  Bi13_5d_z^2      5.30092       0   0   1           -0.00000 
      5     Cs1_5p_z   Bi13_5d_xz      5.30092       0   0   1           -0.00000 
      5     Cs1_5p_z Bi13_5d_x^2-y^2      5.30092       0   0   1           -0.00000 
      5     Cs1_5p_x      Bi13_6s      5.30092       0   0   1           -0.00007 
      5     Cs1_5p_x    Bi13_6p_y      5.30092       0   0   1            0.00001 
      5     Cs1_5p_x    Bi13_6p_z      5.30092       0   0   1            0.00001 
      5     Cs1_5p_x    Bi13_6p_x      5.30092       0   0   1            0.00001 
      5     Cs1_5p_x   Bi13_5d_xy      5.30092       0   0   1           -0.00000 
      5     Cs1_5p_x   Bi13_5d_yz      5.30092       0   0   1            0.00000 
      5     Cs1_5p_x  Bi13_5d_z^2      5.30092       0   0   1           -0.00000 
      5     Cs1_5p_x   Bi13_5d_xz      5.30092       0   0   1           -0.00000 
      5     Cs1_5p_x Bi13_5d_x^2-y^2      5.30092       0   0   1           -0.00000 
      6          Cs1         Bi14      5.30092       0   0   0           -0.02534 
      6       Cs1_5s      Bi14_6s      5.30092       0   0   0           -0.00090 
      6       Cs1_5s    Bi14_6p_y      5.30092       0   0   0           -0.00002 
      6       Cs1_5s    Bi14_6p_z      5.30092       0   0   0           -0.00003 
      6       Cs1_5s    Bi14_6p_x      5.30092       0   0   0           -0.00001 
      6       Cs1_5s   Bi14_5d_xy      5.30092       0   0   0           -0.00000 
      6       Cs1_5s   Bi14_5d_yz      5.30092       0   0   0           -0.00000 
      6       Cs1_5s  Bi14_5d_z^2      5.30092       0   0   0           -0.00000 
      6       Cs1_5s   Bi14_5d_xz      5.30092       0   0   0           -0.00000 
      6       Cs1_5s Bi14_5d_x^2-y^2      5.30092       0   0   0           -0.00000 
      6       Cs1_6s      Bi14_6s      5.30092       0   0   0           -0.01290 
      6       Cs1_6s    Bi14_6p_y      5.30092       0   0   0           -0.00379 
      6       Cs1_6s    Bi14_6p_z      5.30092       0   0   0           -0.00384 
      6       Cs1_6s    Bi14_6p_x      5.30092       0   0   0           -0.00362 
      6       Cs1_6s   Bi14_5d_xy      5.30092       0   0   0           -0.00002 
      6       Cs1_6s   Bi14_5d_yz      5.30092       0   0   0           -0.00003 
      6       Cs1_6s  Bi14_5d_z^2      5.30092       0   0   0           -0.00000 
      6       Cs1_6s   Bi14_5d_xz      5.30092       0   0   0           -0.00003 
      6       Cs1_6s Bi14_5d_x^2-y^2      5.30092       0   0   0           -0.00000 
      6     Cs1_5p_y      Bi14_6s      5.30092       0   0   0           -0.00007 
      6     Cs1_5p_y    Bi14_6p_y      5.30092       0   0   0            0.00001 
      6     Cs1_5p_y    Bi14_6p_z      5.30092       0   0   0            0.00001 
      6     Cs1_5p_y    Bi14_6p_x      5.30092       0   0   0            0.00001 
      6     Cs1_5p_y   Bi14_5d_xy      5.30092       0   0   0           -0.00000 
      6     Cs1_5p_y   Bi14_5d_yz      5.30092       0   0   0           -0.00000 
      6     Cs1_5p_y  Bi14_5d_z^2      5.30092       0   0   0           -0.00000 
      6     Cs1_5p_y   Bi14_5d_xz      5.30092       0   0   0            0.00000 
      6     Cs1_5p_y Bi14_5d_x^2-y^2      5.30092       0   0   0           -0.00000 
      6     Cs1_5p_z      Bi14_6s      5.30092       0   0   0           -0.00007 
      6     Cs1_5p_z    Bi14_6p_y      5.30092       0   0   0            0.00001 
      6     Cs1_5p_z    Bi14_6p_z      5.30092       0   0   0            0.00001 
      6     Cs1_5p_z    Bi14_6p_x      5.30092       0   0   0            0.00000 
      6     Cs1_5p_z   Bi14_5d_xy      5.30092       0   0   0            0.00000 
      6     Cs1_5p_z   Bi14_5d_yz      5.30092       0   0   0           -0.00000 
      6     Cs1_5p_z  Bi14_5d_z^2      5.30092       0   0   0           -0.00000 
      6     Cs1_5p_z   Bi14_5d_xz      5.30092       0   0   0           -0.00000 
      6     Cs1_5p_z Bi14_5d_x^2-y^2      5.30092       0   0   0           -0.00000 
      6     Cs1_5p_x      Bi14_6s      5.30092       0   0   0           -0.00007 
      6     Cs1_5p_x    Bi14_6p_y      5.30092       0   0   0            0.00001 
      6     Cs1_5p_x    Bi14_6p_z      5.30092       0   0   0            0.00001 
      6     Cs1_5p_x    Bi14_6p_x      5.30092       0   0   0            0.00001 
      6     Cs1_5p_x   Bi14_5d_xy      5.30092       0   0   0           -0.00000 
      6     Cs1_5p_x   Bi14_5d_yz      5.30092       0   0   0            0.00000 
      6     Cs1_5p_x  Bi14_5d_z^2      5.30092       0   0   0           -0.00000 
      6     Cs1_5p_x   Bi14_5d_xz      5.30092       0   0   0           -0.00000 
      6     Cs1_5p_x Bi14_5d_x^2-y^2      5.30092       0   0   0           -0.00000 
      7          Cs1         Bi15      5.30092       0   0   0           -0.02459 
      7       Cs1_5s      Bi15_6s      5.30092       0   0   0           -0.00099 
      7       Cs1_5s    Bi15_6p_y      5.30092       0   0   0           -0.00002 
      7       Cs1_5s    Bi15_6p_z      5.30092       0   0   0           -0.00003 
      7       Cs1_5s    Bi15_6p_x      5.30092       0   0   0           -0.00002 
      7       Cs1_5s   Bi15_5d_xy      5.30092       0   0   0           -0.00000 
      7       Cs1_5s   Bi15_5d_yz      5.30092       0   0   0           -0.00000 
      7       Cs1_5s  Bi15_5d_z^2      5.30092       0   0   0           -0.00000 
      7       Cs1_5s   Bi15_5d_xz      5.30092       0   0   0           -0.00000 
      7       Cs1_5s Bi15_5d_x^2-y^2      5.30092       0   0   0           -0.00000 
      7       Cs1_6s      Bi15_6s      5.30092       0   0   0           -0.01211 
      7       Cs1_6s    Bi15_6p_y      5.30092       0   0   0           -0.00373 
      7       Cs1_6s    Bi15_6p_z      5.30092       0   0   0           -0.00381 
      7       Cs1_6s    Bi15_6p_x      5.30092       0   0   0           -0.00365 
      7       Cs1_6s   Bi15_5d_xy      5.30092       0   0   0           -0.00002 
      7       Cs1_6s   Bi15_5d_yz      5.30092       0   0   0           -0.00003 
      7       Cs1_6s  Bi15_5d_z^2      5.30092       0   0   0           -0.00000 
      7       Cs1_6s   Bi15_5d_xz      5.30092       0   0   0           -0.00003 
      7       Cs1_6s Bi15_5d_x^2-y^2      5.30092       0   0   0           -0.00000 
      7     Cs1_5p_y      Bi15_6s      5.30092       0   0   0           -0.00007 
      7     Cs1_5p_y    Bi15_6p_y      5.30092       0   0   0            0.00001 
      7     Cs1_5p_y    Bi15_6p_z      5.30092       0   0   0            0.00000 
      7     Cs1_5p_y    Bi15_6p_x      5.30092       0   0   0            0.00001 
      7     Cs1_5p_y   Bi15_5d_xy      5.30092       0   0   0           -0.00000 
      7     Cs1_5p_y   Bi15_5d_yz      5.30092       0   0   0           -0.00000 
      7     Cs1_5p_y  Bi15_5d_z^2      5.30092       0   0   0           -0.00000 
      7     Cs1_5p_y   Bi15_5d_xz      5.30092       0   0   0            0.00000 
      7     Cs1_5p_y Bi15_5d_x^2-y^2      5.30092       0   0   0           -0.00000 
      7     Cs1_5p_z      Bi15_6s      5.30092       0   0   0           -0.00008 
      7     Cs1_5p_z    Bi15_6p_y      5.30092       0   0   0            0.00000 
      7     Cs1_5p_z    Bi15_6p_z      5.30092       0   0   0            0.00001 
      7     Cs1_5p_z    Bi15_6p_x      5.30092       0   0   0            0.00001 
      7     Cs1_5p_z   Bi15_5d_xy      5.30092       0   0   0            0.00000 
      7     Cs1_5p_z   Bi15_5d_yz      5.30092       0   0   0           -0.00000 
      7     Cs1_5p_z  Bi15_5d_z^2      5.30092       0   0   0           -0.00000 
      7     Cs1_5p_z   Bi15_5d_xz      5.30092       0   0   0           -0.00000 
      7     Cs1_5p_z Bi15_5d_x^2-y^2      5.30092       0   0   0           -0.00000 
      7     Cs1_5p_x      Bi15_6s      5.30092       0   0   0           -0.00008 
      7     Cs1_5p_x    Bi15_6p_y      5.30092       0   0   0            0.00001 
      7     Cs1_5p_x    Bi15_6p_z      5.30092       0   0   0            0.00001 
      7     Cs1_5p_x    Bi15_6p_x      5.30092       0   0   0            0.00001 
      7     Cs1_5p_x   Bi15_5d_xy      5.30092       0   0   0           -0.00000 
      7     Cs1_5p_x   Bi15_5d_yz      5.30092       0   0   0            0.00000 
      7     Cs1_5p_x  Bi15_5d_z^2      5.30092       0   0   0           -0.00000 
      7     Cs1_5p_x   Bi15_5d_xz      5.30092       0   0   0           -0.00000 
      7     Cs1_5p_x Bi15_5d_x^2-y^2      5.30092       0   0   0           -0.00000 
      8          Cs1         Bi16      5.30092       0   0   1           -0.02497 
      8       Cs1_5s      Bi16_6s      5.30092       0   0   1           -0.00094 
      8       Cs1_5s    Bi16_6p_y      5.30092       0   0   1           -0.00001 
      8       Cs1_5s    Bi16_6p_z      5.30092       0   0   1           -0.00002 
      8       Cs1_5s    Bi16_6p_x      5.30092       0   0   1           -0.00002 
      8       Cs1_5s   Bi16_5d_xy      5.30092       0   0   1           -0.00000 
      8       Cs1_5s   Bi16_5d_yz      5.30092       0   0   1           -0.00000 
      8       Cs1_5s  Bi16_5d_z^2      5.30092       0   0   1           -0.00000 
      8       Cs1_5s   Bi16_5d_xz      5.30092       0   0   1           -0.00000 
      8       Cs1_5s Bi16_5d_x^2-y^2      5.30092       0   0   1           -0.00000 
      8       Cs1_6s      Bi16_6s      5.30092       0   0   1           -0.01285 
      8       Cs1_6s    Bi16_6p_y      5.30092       0   0   1           -0.00351 
      8       Cs1_6s    Bi16_6p_z      5.30092       0   0   1           -0.00381 
      8       Cs1_6s    Bi16_6p_x      5.30092       0   0   1           -0.00356 
      8       Cs1_6s   Bi16_5d_xy      5.30092       0   0   1           -0.00004 
      8       Cs1_6s   Bi16_5d_yz      5.30092       0   0   1           -0.00002 
      8       Cs1_6s  Bi16_5d_z^2      5.30092       0   0   1           -0.00000 
      8       Cs1_6s   Bi16_5d_xz      5.30092       0   0   1           -0.00003 
      8       Cs1_6s Bi16_5d_x^2-y^2      5.30092       0   0   1           -0.00000 
      8     Cs1_5p_y      Bi16_6s      5.30092       0   0   1           -0.00007 
      8     Cs1_5p_y    Bi16_6p_y      5.30092       0   0   1            0.00001 
      8     Cs1_5p_y    Bi16_6p_z      5.30092       0   0   1            0.00001 
      8     Cs1_5p_y    Bi16_6p_x      5.30092       0   0   1            0.00001 
      8     Cs1_5p_y   Bi16_5d_xy      5.30092       0   0   1           -0.00000 
      8     Cs1_5p_y   Bi16_5d_yz      5.30092       0   0   1           -0.00000 
      8     Cs1_5p_y  Bi16_5d_z^2      5.30092       0   0   1           -0.00000 
      8     Cs1_5p_y   Bi16_5d_xz      5.30092       0   0   1            0.00000 
      8     Cs1_5p_y Bi16_5d_x^2-y^2      5.30092       0   0   1           -0.00000 
      8     Cs1_5p_z      Bi16_6s      5.30092       0   0   1           -0.00008 
      8     Cs1_5p_z    Bi16_6p_y      5.30092       0   0   1            0.00000 
      8     Cs1_5p_z    Bi16_6p_z      5.30092       0   0   1            0.00001 
      8     Cs1_5p_z    Bi16_6p_x      5.30092       0   0   1            0.00001 
      8     Cs1_5p_z   Bi16_5d_xy      5.30092       0   0   1            0.00000 
      8     Cs1_5p_z   Bi16_5d_yz      5.30092       0   0   1           -0.00000 
      8     Cs1_5p_z  Bi16_5d_z^2      5.30092       0   0   1           -0.00000 
      8     Cs1_5p_z   Bi16_5d_xz      5.30092       0   0   1           -0.00000 