  COHP#       atomMU       atomNU     distance     translation      ICOHP (at) eF   for spin  1
      1          Cs1          Ag9      5.30092       0   0   1           -0.02127 
      1       Cs1_5s       Ag9_5s      5.30092       0   0   1           -0.00274 
      1       Cs1_5s    Ag9_4d_xy      5.30092       0   0   1            0.00000 
      1       Cs1_5s    Ag9_4d_yz      5.30092       0   0   1           -0.00000 
      1       Cs1_5s   Ag9_4d_z^2      5.30092       0   0   1           -0.00000 
      1       Cs1_5s    Ag9_4d_xz      5.30092       0   0   1           -0.00000 
      1       Cs1_5s Ag9_4d_x^2-y^2      5.30092       0   0   1           -0.00000 
      1       Cs1_6s       Ag9_5s      5.30092       0   0   1           -0.01787 
      1       Cs1_6s    Ag9_4d_xy      5.30092       0   0   1            0.00004 
      1       Cs1_6s    Ag9_4d_yz      5.30092       0   0   1            0.00005 
      1       Cs1_6s   Ag9_4d_z^2      5.30092       0   0   1           -0.00000 
      1       Cs1_6s    Ag9_4d_xz      5.30092       0   0   1            0.00005 
      1       Cs1_6s Ag9_4d_x^2-y^2      5.30092       0   0   1           -0.00000 
      1     Cs1_5p_y       Ag9_5s      5.30092       0   0   1           -0.00027 
      1     Cs1_5p_y    Ag9_4d_xy      5.30092       0   0   1            0.00000 
      1     Cs1_5p_y    Ag9_4d_yz      5.30092       0   0   1            0.00000 
      1     Cs1_5p_y   Ag9_4d_z^2      5.30092       0   0   1            0.00000 
      1     Cs1_5p_y    Ag9_4d_xz      5.30092       0   0   1            0.00000 
      1     Cs1_5p_y Ag9_4d_x^2-y^2      5.30092       0   0   1            0.00000 
      1     Cs1_5p_z       Ag9_5s      5.30092       0   0   1           -0.00026 
      1     Cs1_5p_z    Ag9_4d_xy      5.30092       0   0   1            0.00000 
      1     Cs1_5p_z    Ag9_4d_yz      5.30092       0   0   1            0.00000 
      1     Cs1_5p_z   Ag9_4d_z^2      5.30092       0   0   1            0.00000 
      1     Cs1_5p_z    Ag9_4d_xz      5.30092       0   0   1            0.00000 
      1     Cs1_5p_z Ag9_4d_x^2-y^2      5.30092       0   0   1           -0.00000 
      1     Cs1_5p_x       Ag9_5s      5.30092       0   0   1           -0.00027 
      1     Cs1_5p_x    Ag9_4d_xy      5.30092       0   0   1            0.00000 
      1     Cs1_5p_x    Ag9_4d_yz      5.30092       0   0   1            0.00000 
      1     Cs1_5p_x   Ag9_4d_z^2      5.30092       0   0   1            0.00000 
      1     Cs1_5p_x    Ag9_4d_xz      5.30092       0   0   1            0.00000 
      1     Cs1_5p_x Ag9_4d_x^2-y^2      5.30092       0   0   1            0.00000 
      2          Cs1         Ag10      5.30092       0   0   0           -0.02133 
      2       Cs1_5s      Ag10_5s      5.30092       0   0   0           -0.00276 
      2       Cs1_5s   Ag10_4d_xy      5.30092       0   0   0           -0.00000 
      2       Cs1_5s   Ag10_4d_yz      5.30092       0   0   0           -0.00000 
      2       Cs1_5s  Ag10_4d_z^2      5.30092       0   0   0           -0.00000 
      2       Cs1_5s   Ag10_4d_xz      5.30092       0   0   0           -0.00000 
      2       Cs1_5s Ag10_4d_x^2-y^2      5.30092       0   0   0           -0.00000 
      2       Cs1_6s      Ag10_5s      5.30092       0   0   0           -0.01791 
      2       Cs1_6s   Ag10_4d_xy      5.30092       0   0   0            0.00005 
      2       Cs1_6s   Ag10_4d_yz      5.30092       0   0   0            0.00005 
      2       Cs1_6s  Ag10_4d_z^2      5.30092       0   0   0           -0.00000 
      2       Cs1_6s   Ag10_4d_xz      5.30092       0   0   0            0.00005 
      2       Cs1_6s Ag10_4d_x^2-y^2      5.30092       0   0   0           -0.00000 
      2     Cs1_5p_y      Ag10_5s      5.30092       0   0   0           -0.00026 
      2     Cs1_5p_y   Ag10_4d_xy      5.30092       0   0   0            0.00000 
      2     Cs1_5p_y   Ag10_4d_yz      5.30092       0   0   0            0.00000 
      2     Cs1_5p_y  Ag10_4d_z^2      5.30092       0   0   0            0.00000 
      2     Cs1_5p_y   Ag10_4d_xz      5.30092       0   0   0            0.00000 
      2     Cs1_5p_y Ag10_4d_x^2-y^2      5.30092       0   0   0            0.00000 
      2     Cs1_5p_z      Ag10_5s      5.30092       0   0   0           -0.00027 
      2     Cs1_5p_z   Ag10_4d_xy      5.30092       0   0   0            0.00000 
      2     Cs1_5p_z   Ag10_4d_yz      5.30092       0   0   0            0.00000 
      2     Cs1_5p_z  Ag10_4d_z^2      5.30092       0   0   0            0.00000 
      2     Cs1_5p_z   Ag10_4d_xz      5.30092       0   0   0            0.00000 
      2     Cs1_5p_z Ag10_4d_x^2-y^2      5.30092       0   0   0           -0.00000 
      2     Cs1_5p_x      Ag10_5s      5.30092       0   0   0           -0.00026 
      2     Cs1_5p_x   Ag10_4d_xy      5.30092       0   0   0            0.00000 
      2     Cs1_5p_x   Ag10_4d_yz      5.30092       0   0   0            0.00000 
      2     Cs1_5p_x  Ag10_4d_z^2      5.30092       0   0   0            0.00000 
      2     Cs1_5p_x   Ag10_4d_xz      5.30092       0   0   0            0.00000 
      2     Cs1_5p_x Ag10_4d_x^2-y^2      5.30092       0   0   0            0.00000 
      3          Cs1         Ag11      5.30092       0   0   0           -0.02132 
      3       Cs1_5s      Ag11_5s      5.30092       0   0   0           -0.00276 
      3       Cs1_5s   Ag11_4d_xy      5.30092       0   0   0           -0.00000 
      3       Cs1_5s   Ag11_4d_yz      5.30092       0   0   0           -0.00000 
      3       Cs1_5s  Ag11_4d_z^2      5.30092       0   0   0           -0.00000 
      3       Cs1_5s   Ag11_4d_xz      5.30092       0   0   0           -0.00000 
      3       Cs1_5s Ag11_4d_x^2-y^2      5.30092       0   0   0           -0.00000 
      3       Cs1_6s      Ag11_5s      5.30092       0   0   0           -0.01791 
      3       Cs1_6s   Ag11_4d_xy      5.30092       0   0   0            0.00005 
      3       Cs1_6s   Ag11_4d_yz      5.30092       0   0   0            0.00005 
      3       Cs1_6s  Ag11_4d_z^2      5.30092       0   0   0           -0.00000 
      3       Cs1_6s   Ag11_4d_xz      5.30092       0   0   0            0.00004 
      3       Cs1_6s Ag11_4d_x^2-y^2      5.30092       0   0   0           -0.00000 
      3     Cs1_5p_y      Ag11_5s      5.30092       0   0   0           -0.00026 
      3     Cs1_5p_y   Ag11_4d_xy      5.30092       0   0   0            0.00000 
      3     Cs1_5p_y   Ag11_4d_yz      5.30092       0   0   0            0.00000 
      3     Cs1_5p_y  Ag11_4d_z^2      5.30092       0   0   0            0.00000 
      3     Cs1_5p_y   Ag11_4d_xz      5.30092       0   0   0            0.00000 
      3     Cs1_5p_y Ag11_4d_x^2-y^2      5.30092       0   0   0            0.00000 
      3     Cs1_5p_z      Ag11_5s      5.30092       0   0   0           -0.00027 
      3     Cs1_5p_z   Ag11_4d_xy      5.30092       0   0   0            0.00000 
      3     Cs1_5p_z   Ag11_4d_yz      5.30092       0   0   0            0.00000 
      3     Cs1_5p_z  Ag11_4d_z^2      5.30092       0   0   0            0.00000 
      3     Cs1_5p_z   Ag11_4d_xz      5.30092       0   0   0            0.00000 
      3     Cs1_5p_z Ag11_4d_x^2-y^2      5.30092       0   0   0           -0.00000 
      3     Cs1_5p_x      Ag11_5s      5.30092       0   0   0           -0.00027 
      3     Cs1_5p_x   Ag11_4d_xy      5.30092       0   0   0            0.00000 
      3     Cs1_5p_x   Ag11_4d_yz      5.30092       0   0   0            0.00000 
      3     Cs1_5p_x  Ag11_4d_z^2      5.30092       0   0   0            0.00000 
      3     Cs1_5p_x   Ag11_4d_xz      5.30092       0   0   0            0.00000 
      3     Cs1_5p_x Ag11_4d_x^2-y^2      5.30092       0   0   0            0.00000 
      4          Cs1         Ag12      5.30092       0   0   1           -0.02119 
      4       Cs1_5s      Ag12_5s      5.30092       0   0   1           -0.00274 
      4       Cs1_5s   Ag12_4d_xy      5.30092       0   0   1            0.00000 
      4       Cs1_5s   Ag12_4d_yz      5.30092       0   0   1            0.00000 
      4       Cs1_5s  Ag12_4d_z^2      5.30092       0   0   1           -0.00000 
      4       Cs1_5s   Ag12_4d_xz      5.30092       0   0   1           -0.00000 
      4       Cs1_5s Ag12_4d_x^2-y^2      5.30092       0   0   1           -0.00000 
      4       Cs1_6s      Ag12_5s      5.30092       0   0   1           -0.01778 
      4       Cs1_6s   Ag12_4d_xy      5.30092       0   0   1            0.00004 
      4       Cs1_6s   Ag12_4d_yz      5.30092       0   0   1            0.00004 
      4       Cs1_6s  Ag12_4d_z^2      5.30092       0   0   1           -0.00000 
      4       Cs1_6s   Ag12_4d_xz      5.30092       0   0   1            0.00005 
      4       Cs1_6s Ag12_4d_x^2-y^2      5.30092       0   0   1           -0.00000 
      4     Cs1_5p_y      Ag12_5s      5.30092       0   0   1           -0.00027 
      4     Cs1_5p_y   Ag12_4d_xy      5.30092       0   0   1            0.00000 
      4     Cs1_5p_y   Ag12_4d_yz      5.30092       0   0   1            0.00000 
      4     Cs1_5p_y  Ag12_4d_z^2      5.30092       0   0   1            0.00000 
      4     Cs1_5p_y   Ag12_4d_xz      5.30092       0   0   1            0.00000 
      4     Cs1_5p_y Ag12_4d_x^2-y^2      5.30092       0   0   1            0.00000 
      4     Cs1_5p_z      Ag12_5s      5.30092       0   0   1           -0.00027 
      4     Cs1_5p_z   Ag12_4d_xy      5.30092       0   0   1            0.00000 
      4     Cs1_5p_z   Ag12_4d_yz      5.30092       0   0   1            0.00000 
      4     Cs1_5p_z  Ag12_4d_z^2      5.30092       0   0   1            0.00000 
      4     Cs1_5p_z   Ag12_4d_xz      5.30092       0   0   1            0.00000 
      4     Cs1_5p_z Ag12_4d_x^2-y^2      5.30092       0   0   1           -0.00000 
      4     Cs1_5p_x      Ag12_5s      5.30092       0   0   1           -0.00027 
      4     Cs1_5p_x   Ag12_4d_xy      5.30092       0   0   1            0.00000 
      4     Cs1_5p_x   Ag12_4d_yz      5.30092       0   0   1            0.00000 
      4     Cs1_5p_x  Ag12_4d_z^2      5.30092       0   0   1            0.00000 
      4     Cs1_5p_x   Ag12_4d_xz      5.30092       0   0   1            0.00000 
      4     Cs1_5p_x Ag12_4d_x^2-y^2      5.30092       0   0   1            0.00000 
      5          Cs1         Bi13      5.30092       0   0   1           -0.03749 
      5       Cs1_5s      Bi13_6s      5.30092       0   0   1           -0.00000 
      5       Cs1_5s    Bi13_6p_y      5.30092       0   0   1           -0.00019 
      5       Cs1_5s    Bi13_6p_z      5.30092       0   0   1           -0.00019 
      5       Cs1_5s    Bi13_6p_x      5.30092       0   0   1           -0.00019 
      5       Cs1_5s   Bi13_5d_xy      5.30092       0   0   1            0.00000 
      5       Cs1_5s   Bi13_5d_yz      5.30092       0   0   1            0.00000 
      5       Cs1_5s  Bi13_5d_z^2      5.30092       0   0   1           -0.00000 
      5       Cs1_5s   Bi13_5d_xz      5.30092       0   0   1            0.00000 
      5       Cs1_5s Bi13_5d_x^2-y^2      5.30092       0   0   1           -0.00000 
      5       Cs1_6s      Bi13_6s      5.30092       0   0   1           -0.02303 
      5       Cs1_6s    Bi13_6p_y      5.30092       0   0   1           -0.00462 
      5       Cs1_6s    Bi13_6p_z      5.30092       0   0   1           -0.00464 
      5       Cs1_6s    Bi13_6p_x      5.30092       0   0   1           -0.00460 
      5       Cs1_6s   Bi13_5d_xy      5.30092       0   0   1           -0.00000 
      5       Cs1_6s   Bi13_5d_yz      5.30092       0   0   1           -0.00000 
      5       Cs1_6s  Bi13_5d_z^2      5.30092       0   0   1           -0.00000 
      5       Cs1_6s   Bi13_5d_xz      5.30092       0   0   1           -0.00001 
      5       Cs1_6s Bi13_5d_x^2-y^2      5.30092       0   0   1           -0.00000 
      5     Cs1_5p_y      Bi13_6s      5.30092       0   0   1           -0.00002 
      5     Cs1_5p_y    Bi13_6p_y      5.30092       0   0   1            0.00001 
      5     Cs1_5p_y    Bi13_6p_z      5.30092       0   0   1            0.00000 
      5     Cs1_5p_y    Bi13_6p_x      5.30092       0   0   1            0.00000 
      5     Cs1_5p_y   Bi13_5d_xy      5.30092       0   0   1           -0.00000 
      5     Cs1_5p_y   Bi13_5d_yz      5.30092       0   0   1           -0.00000 
      5     Cs1_5p_y  Bi13_5d_z^2      5.30092       0   0   1           -0.00000 
      5     Cs1_5p_y   Bi13_5d_xz      5.30092       0   0   1            0.00000 
      5     Cs1_5p_y Bi13_5d_x^2-y^2      5.30092       0   0   1           -0.00000 
      5     Cs1_5p_z      Bi13_6s      5.30092       0   0   1           -0.00002 
      5     Cs1_5p_z    Bi13_6p_y      5.30092       0   0   1            0.00000 
      5     Cs1_5p_z    Bi13_6p_z      5.30092       0   0   1            0.00001 
      5     Cs1_5p_z    Bi13_6p_x      5.30092       0   0   1            0.00000 
      5     Cs1_5p_z   Bi13_5d_xy      5.30092       0   0   1            0.00000 
      5     Cs1_5p_z   Bi13_5d_yz      5.30092       0   0   1           -0.00000 
      5     Cs1_5p_z  Bi13_5d_z^2      5.30092       0   0   1           -0.00000 
      5     Cs1_5p_z   Bi13_5d_xz      5.30092       0   0   1            0.00000 
      5     Cs1_5p_z Bi13_5d_x^2-y^2      5.30092       0   0   1           -0.00000 
      5     Cs1_5p_x      Bi13_6s      5.30092       0   0   1           -0.00002 
      5     Cs1_5p_x    Bi13_6p_y      5.30092       0   0   1            0.00000 
      5     Cs1_5p_x    Bi13_6p_z      5.30092       0   0   1            0.00000 
      5     Cs1_5p_x    Bi13_6p_x      5.30092       0   0   1            0.00001 
      5     Cs1_5p_x   Bi13_5d_xy      5.30092       0   0   1            0.00000 
      5     Cs1_5p_x   Bi13_5d_yz      5.30092       0   0   1            0.00000 
      5     Cs1_5p_x  Bi13_5d_z^2      5.30092       0   0   1           -0.00000 
      5     Cs1_5p_x   Bi13_5d_xz      5.30092       0   0   1           -0.00000 
      5     Cs1_5p_x Bi13_5d_x^2-y^2      5.30092       0   0   1           -0.00000 
      6          Cs1         Bi14      5.30092       0   0   0           -0.03745 
      6       Cs1_5s      Bi14_6s      5.30092       0   0   0           -0.00000 
      6       Cs1_5s    Bi14_6p_y      5.30092       0   0   0           -0.00019 
      6       Cs1_5s    Bi14_6p_z      5.30092       0   0   0           -0.00019 
      6       Cs1_5s    Bi14_6p_x      5.30092       0   0   0           -0.00019 
      6       Cs1_5s   Bi14_5d_xy      5.30092       0   0   0            0.00000 
      6       Cs1_5s   Bi14_5d_yz      5.30092       0   0   0            0.00000 
      6       Cs1_5s  Bi14_5d_z^2      5.30092       0   0   0           -0.00000 
      6       Cs1_5s   Bi14_5d_xz      5.30092       0   0   0            0.00000 
      6       Cs1_5s Bi14_5d_x^2-y^2      5.30092       0   0   0           -0.00000 
      6       Cs1_6s      Bi14_6s      5.30092       0   0   0           -0.02285 
      6       Cs1_6s    Bi14_6p_y      5.30092       0   0   0           -0.00468 
      6       Cs1_6s    Bi14_6p_z      5.30092       0   0   0           -0.00467 
      6       Cs1_6s    Bi14_6p_x      5.30092       0   0   0           -0.00464 
      6       Cs1_6s   Bi14_5d_xy      5.30092       0   0   0           -0.00001 
      6       Cs1_6s   Bi14_5d_yz      5.30092       0   0   0           -0.00000 
      6       Cs1_6s  Bi14_5d_z^2      5.30092       0   0   0           -0.00000 
      6       Cs1_6s   Bi14_5d_xz      5.30092       0   0   0           -0.00001 
      6       Cs1_6s Bi14_5d_x^2-y^2      5.30092       0   0   0           -0.00000 
      6     Cs1_5p_y      Bi14_6s      5.30092       0   0   0           -0.00002 
      6     Cs1_5p_y    Bi14_6p_y      5.30092       0   0   0            0.00001 
      6     Cs1_5p_y    Bi14_6p_z      5.30092       0   0   0            0.00000 
      6     Cs1_5p_y    Bi14_6p_x      5.30092       0   0   0            0.00000 
      6     Cs1_5p_y   Bi14_5d_xy      5.30092       0   0   0           -0.00000 
      6     Cs1_5p_y   Bi14_5d_yz      5.30092       0   0   0            0.00000 
      6     Cs1_5p_y  Bi14_5d_z^2      5.30092       0   0   0           -0.00000 
      6     Cs1_5p_y   Bi14_5d_xz      5.30092       0   0   0            0.00000 
      6     Cs1_5p_y Bi14_5d_x^2-y^2      5.30092       0   0   0           -0.00000 
      6     Cs1_5p_z      Bi14_6s      5.30092       0   0   0           -0.00002 
      6     Cs1_5p_z    Bi14_6p_y      5.30092       0   0   0            0.00000 
      6     Cs1_5p_z    Bi14_6p_z      5.30092       0   0   0            0.00001 
      6     Cs1_5p_z    Bi14_6p_x      5.30092       0   0   0            0.00000 
      6     Cs1_5p_z   Bi14_5d_xy      5.30092       0   0   0            0.00000 
      6     Cs1_5p_z   Bi14_5d_yz      5.30092       0   0   0           -0.00000 
      6     Cs1_5p_z  Bi14_5d_z^2      5.30092       0   0   0           -0.00000 
      6     Cs1_5p_z   Bi14_5d_xz      5.30092       0   0   0           -0.00000 
      6     Cs1_5p_z Bi14_5d_x^2-y^2      5.30092       0   0   0           -0.00000 
      6     Cs1_5p_x      Bi14_6s      5.30092       0   0   0           -0.00002 
      6     Cs1_5p_x    Bi14_6p_y      5.30092       0   0   0            0.00000 
      6     Cs1_5p_x    Bi14_6p_z      5.30092       0   0   0            0.00000 
      6     Cs1_5p_x    Bi14_6p_x      5.30092       0   0   0            0.00001 
      6     Cs1_5p_x   Bi14_5d_xy      5.30092       0   0   0            0.00000 
      6     Cs1_5p_x   Bi14_5d_yz      5.30092       0   0   0            0.00000 
      6     Cs1_5p_x  Bi14_5d_z^2      5.30092       0   0   0           -0.00000 
      6     Cs1_5p_x   Bi14_5d_xz      5.30092       0   0   0           -0.00000 
      6     Cs1_5p_x Bi14_5d_x^2-y^2      5.30092       0   0   0           -0.00000 
      7          Cs1         Bi15      5.30092       0   0   0           -0.03769 
      7       Cs1_5s      Bi15_6s      5.30092       0   0   0           -0.00000 
      7       Cs1_5s    Bi15_6p_y      5.30092       0   0   0           -0.00019 
      7       Cs1_5s    Bi15_6p_z      5.30092       0   0   0           -0.00019 
      7       Cs1_5s    Bi15_6p_x      5.30092       0   0   0           -0.00020 
      7       Cs1_5s   Bi15_5d_xy      5.30092       0   0   0            0.00000 
      7       Cs1_5s   Bi15_5d_yz      5.30092       0   0   0            0.00000 
      7       Cs1_5s  Bi15_5d_z^2      5.30092       0   0   0           -0.00000 
      7       Cs1_5s   Bi15_5d_xz      5.30092       0   0   0            0.00000 
      7       Cs1_5s Bi15_5d_x^2-y^2      5.30092       0   0   0           -0.00000 
      7       Cs1_6s      Bi15_6s      5.30092       0   0   0           -0.02301 
      7       Cs1_6s    Bi15_6p_y      5.30092       0   0   0           -0.00465 
      7       Cs1_6s    Bi15_6p_z      5.30092       0   0   0           -0.00460 
      7       Cs1_6s    Bi15_6p_x      5.30092       0   0   0           -0.00481 
      7       Cs1_6s   Bi15_5d_xy      5.30092       0   0   0           -0.00001 
      7       Cs1_6s   Bi15_5d_yz      5.30092       0   0   0           -0.00000 
      7       Cs1_6s  Bi15_5d_z^2      5.30092       0   0   0           -0.00000 
      7       Cs1_6s   Bi15_5d_xz      5.30092       0   0   0           -0.00001 
      7       Cs1_6s Bi15_5d_x^2-y^2      5.30092       0   0   0           -0.00000 
      7     Cs1_5p_y      Bi15_6s      5.30092       0   0   0           -0.00002 
      7     Cs1_5p_y    Bi15_6p_y      5.30092       0   0   0            0.00001 
      7     Cs1_5p_y    Bi15_6p_z      5.30092       0   0   0            0.00000 
      7     Cs1_5p_y    Bi15_6p_x      5.30092       0   0   0            0.00000 
      7     Cs1_5p_y   Bi15_5d_xy      5.30092       0   0   0            0.00000 
      7     Cs1_5p_y   Bi15_5d_yz      5.30092       0   0   0            0.00000 
      7     Cs1_5p_y  Bi15_5d_z^2      5.30092       0   0   0           -0.00000 
      7     Cs1_5p_y   Bi15_5d_xz      5.30092       0   0   0            0.00000 
      7     Cs1_5p_y Bi15_5d_x^2-y^2      5.30092       0   0   0           -0.00000 
      7     Cs1_5p_z      Bi15_6s      5.30092       0   0   0           -0.00002 
      7     Cs1_5p_z    Bi15_6p_y      5.30092       0   0   0            0.00000 
      7     Cs1_5p_z    Bi15_6p_z      5.30092       0   0   0            0.00001 
      7     Cs1_5p_z    Bi15_6p_x      5.30092       0   0   0            0.00000 
      7     Cs1_5p_z   Bi15_5d_xy      5.30092       0   0   0            0.00000 
      7     Cs1_5p_z   Bi15_5d_yz      5.30092       0   0   0           -0.00000 
      7     Cs1_5p_z  Bi15_5d_z^2      5.30092       0   0   0           -0.00000 
      7     Cs1_5p_z   Bi15_5d_xz      5.30092       0   0   0           -0.00000 
      7     Cs1_5p_z Bi15_5d_x^2-y^2      5.30092       0   0   0           -0.00000 
      7     Cs1_5p_x      Bi15_6s      5.30092       0   0   0           -0.00002 
      7     Cs1_5p_x    Bi15_6p_y      5.30092       0   0   0            0.00000 
      7     Cs1_5p_x    Bi15_6p_z      5.30092       0   0   0            0.00000 
      7     Cs1_5p_x    Bi15_6p_x      5.30092       0   0   0            0.00001 
      7     Cs1_5p_x   Bi15_5d_xy      5.30092       0   0   0           -0.00000 
      7     Cs1_5p_x   Bi15_5d_yz      5.30092       0   0   0            0.00000 
      7     Cs1_5p_x  Bi15_5d_z^2      5.30092       0   0   0           -0.00000 
      7     Cs1_5p_x   Bi15_5d_xz      5.30092       0   0   0           -0.00000 
      7     Cs1_5p_x Bi15_5d_x^2-y^2      5.30092       0   0   0           -0.00000 
      8          Cs1         Bi16      5.30092       0   0   1           -0.03792 
      8       Cs1_5s      Bi16_6s      5.30092       0   0   1           -0.00000 
      8       Cs1_5s    Bi16_6p_y      5.30092       0   0   1           -0.00020 
      8       Cs1_5s    Bi16_6p_z      5.30092       0   0   1           -0.00020 
      8       Cs1_5s    Bi16_6p_x      5.30092       0   0   1           -0.00020 
      8       Cs1_5s   Bi16_5d_xy      5.30092       0   0   1            0.00000 
      8       Cs1_5s   Bi16_5d_yz      5.30092       0   0   1            0.00000 
      8       Cs1_5s  Bi16_5d_z^2      5.30092       0   0   1           -0.00000 
      8       Cs1_5s   Bi16_5d_xz      5.30092       0   0   1            0.00000 
      8       Cs1_5s Bi16_5d_x^2-y^2      5.30092       0   0   1           -0.00000 
      8       Cs1_6s      Bi16_6s      5.30092       0   0   1           -0.02318 
      8       Cs1_6s    Bi16_6p_y      5.30092       0   0   1           -0.00467 
      8       Cs1_6s    Bi16_6p_z      5.30092       0   0   1           -0.00475 
      8       Cs1_6s    Bi16_6p_x      5.30092       0   0   1           -0.00471 
      8       Cs1_6s   Bi16_5d_xy      5.30092       0   0   1           -0.00000 
      8       Cs1_6s   Bi16_5d_yz      5.30092       0   0   1           -0.00001 
      8       Cs1_6s  Bi16_5d_z^2      5.30092       0   0   1           -0.00000 
      8       Cs1_6s   Bi16_5d_xz      5.30092       0   0   1           -0.00001 
      8       Cs1_6s Bi16_5d_x^2-y^2      5.30092       0   0   1           -0.00000 
      8     Cs1_5p_y      Bi16_6s      5.30092       0   0   1           -0.00002 
      8     Cs1_5p_y    Bi16_6p_y      5.30092       0   0   1            0.00001 
      8     Cs1_5p_y    Bi16_6p_z      5.30092       0   0   1            0.00000 
      8     Cs1_5p_y    Bi16_6p_x      5.30092       0   0   1            0.00000 
      8     Cs1_5p_y   Bi16_5d_xy      5.30092       0   0   1            0.00000 
      8     Cs1_5p_y   Bi16_5d_yz      5.30092       0   0   1           -0.00000 
      8     Cs1_5p_y  Bi16_5d_z^2      5.30092       0   0   1           -0.00000 
      8     Cs1_5p_y   Bi16_5d_xz      5.30092       0   0   1            0.00000 
      8     Cs1_5p_y Bi16_5d_x^2-y^2      5.30092       0   0   1           -0.00000 
      8     Cs1_5p_z      Bi16_6s      5.30092       0   0   1           -0.00002 
      8     Cs1_5p_z    Bi16_6p_y      5.30092       0   0   1            0.00000 
      8     Cs1_5p_z    Bi16_6p_z      5.30092       0   0   1            0.00001 
      8     Cs1_5p_z    Bi16_6p_x      5.30092       0   0   1            0.00000 
      8     Cs1_5p_z   Bi16_5d_xy      5.30092       0   0   1            0.00000 
      8     Cs1_5p_z   Bi16_5d_yz      5.30092       0   0   1           -0.00000 
      8     Cs1_5p_z  Bi16_5d_z^2      5.30092       0   0   1           -0.00000 
      8     Cs1_5p_z   Bi16_5d_xz      5.30092       0   0   1           -0.00000 
      8     Cs1_5p_z Bi16_5d_x^2-y^2      5.30092       0   0   1            0.00000 
      8     Cs1_5p_x      Bi16_6s      5.30092       0   0   1           -0.00002 
      8     Cs1_5p_x    Bi16_6p_y      5.30092       0   0   1            0.00000 
      8     Cs1_5p_x    Bi16_6p_z      5.30092       0   0   1            0.00000 
      8     Cs1_5p_x    Bi16_6p_x      5.30092       0   0   1            0.00001 
      8     Cs1_5p_x   Bi16_5d_xy      5.30092       0   0   1            0.00000 
      8     Cs1_5p_x   Bi16_5d_yz      5.30092       0   0   1            0.00000 
      8     Cs1_5p_x  Bi16_5d_z^2      5.30092       0   0   1           -0.00000 
      8     Cs1_5p_x   Bi16_5d_xz      5.30092       0   0   1            0.00000 
      8     Cs1_5p_x Bi16_5d_x^2-y^2      5.30092       0   0   1           -0.00000 
      9          Cs1          I17      4.32837       0   0   1           -0.20811 
      9       Cs1_5s       I17_5s      4.32837       0   0   1           -0.00009 
      9       Cs1_5s     I17_5p_y      4.32837       0   0   1           -0.00195 
      9       Cs1_5s     I17_5p_z      4.32837       0   0   1           -0.00195 
      9       Cs1_5s     I17_5p_x      4.32837       0   0   1           -0.00002 
      9       Cs1_6s       I17_5s      4.32837       0   0   1           -0.13141 
      9       Cs1_6s     I17_5p_y      4.32837       0   0   1           -0.03633 
      9       Cs1_6s     I17_5p_z      4.32837       0   0   1           -0.03642 
      9       Cs1_6s     I17_5p_x      4.32837       0   0   1            0.00010 
      9     Cs1_5p_y       I17_5s      4.32837       0   0   1            0.00004 
      9     Cs1_5p_y     I17_5p_y      4.32837       0   0   1           -0.00027 
      9     Cs1_5p_y     I17_5p_z      4.32837       0   0   1            0.00022 
      9     Cs1_5p_y     I17_5p_x      4.32837       0   0   1           -0.00001 
      9     Cs1_5p_z       I17_5s      4.32837       0   0   1            0.00004 
      9     Cs1_5p_z     I17_5p_y      4.32837       0   0   1            0.00022 
      9     Cs1_5p_z     I17_5p_z      4.32837       0   0   1           -0.00027 
      9     Cs1_5p_z     I17_5p_x      4.32837       0   0   1           -0.00001 
      9     Cs1_5p_x       I17_5s      4.32837       0   0   1           -0.00000 
      9     Cs1_5p_x     I17_5p_y      4.32837       0   0   1           -0.00000 
      9     Cs1_5p_x     I17_5p_z      4.32837       0   0   1           -0.00000 
      9     Cs1_5p_x     I17_5p_x      4.32837       0   0   1            0.00002 
     10          Cs1          I18      4.32837       0   0   0           -0.20701 
     10       Cs1_5s       I18_5s      4.32837       0   0   0           -0.00009 
     10       Cs1_5s     I18_5p_y      4.32837       0   0   0           -0.00194 
     10       Cs1_5s     I18_5p_z      4.32837       0   0   0           -0.00002 
     10       Cs1_5s     I18_5p_x      4.32837       0   0   0           -0.00194 
     10       Cs1_6s       I18_5s      4.32837       0   0   0           -0.13084 
     10       Cs1_6s     I18_5p_y      4.32837       0   0   0           -0.03624 
     10       Cs1_6s     I18_5p_z      4.32837       0   0   0            0.00010 
     10       Cs1_6s     I18_5p_x      4.32837       0   0   0           -0.03600 
     10     Cs1_5p_y       I18_5s      4.32837       0   0   0            0.00004 
     10     Cs1_5p_y     I18_5p_y      4.32837       0   0   0           -0.00027 
     10     Cs1_5p_y     I18_5p_z      4.32837       0   0   0           -0.00001 
     10     Cs1_5p_y     I18_5p_x      4.32837       0   0   0            0.00022 
     10     Cs1_5p_z       I18_5s      4.32837       0   0   0           -0.00000 
     10     Cs1_5p_z     I18_5p_y      4.32837       0   0   0           -0.00000 
     10     Cs1_5p_z     I18_5p_z      4.32837       0   0   0            0.00002 
     10     Cs1_5p_z     I18_5p_x      4.32837       0   0   0           -0.00000 
     10     Cs1_5p_x       I18_5s      4.32837       0   0   0            0.00004 
     10     Cs1_5p_x     I18_5p_y      4.32837       0   0   0            0.00022 
     10     Cs1_5p_x     I18_5p_z      4.32837       0   0   0           -0.00001 
     10     Cs1_5p_x     I18_5p_x      4.32837       0   0   0           -0.00027 
     11          Cs1          I21      4.32837       0   0   1           -0.20710 
     11       Cs1_5s       I21_5s      4.32837       0   0   1           -0.00009 
     11       Cs1_5s     I21_5p_y      4.32837       0   0   1           -0.00002 
     11       Cs1_5s     I21_5p_z      4.32837       0   0   1           -0.00194 
     11       Cs1_5s     I21_5p_x      4.32837       0   0   1           -0.00195 
     11       Cs1_6s       I21_5s      4.32837       0   0   1           -0.13053 
     11       Cs1_6s     I21_5p_y      4.32837       0   0   1            0.00010 
     11       Cs1_6s     I21_5p_z      4.32837       0   0   1           -0.03636 